
#(C) 2023 by FIZ Karlsruhe - Leibniz Institute for Information Infrastructure.  All rights reserved.
data_182851-ICSD
_database_code_ICSD 182851
_audit_creation_date 2012-08-01
_chemical_name_common 'Potassium copper trifluoride'
_chemical_formula_structural 'K Cu F3'
_chemical_formula_sum 'Cu1 F3 K1'
_chemical_name_structure_type Perovskite#KCuF3
_exptl_crystal_density_diffrn 4.01
_diffrn_ambient_temperature 295.
_diffrn_ambient_pressure 1300000.
_citation_title
'Jahn-Teller distortion in perovskite K Cu F3 under high pressure'
loop_
_citation_id
_citation_journal_full
_citation_year
_citation_journal_volume
_citation_page_first
_citation_page_last
_citation_journal_id_ASTM
primary 'Journal of Fluorine Chemistry' 2011 132 1117 1121 JFLCAR
loop_
_citation_author_citation_id
_citation_author_name
primary 'Zhou, J.S.'
primary 'Alonso, J.A.'
primary 'Han, J.T.'
primary 'Fernandez Diaz, M.T.'
primary 'Cheng, J.G.'
primary 'Goodenough, J.B.'
_cell_length_a 5.8100(2)
_cell_length_b 5.8100(2)
_cell_length_c 7.8251(4)
_cell_angle_alpha 90.
_cell_angle_beta 90.
_cell_angle_gamma 90.
_cell_volume 264.14
_cell_formula_units_Z 4
_space_group_name_H-M_alt 'I 4/m c m'
_space_group_IT_number 140
loop_
_space_group_symop_id
_space_group_symop_operation_xyz
1 'y, x, -z+1/2'
2 '-y, -x, -z+1/2'
3 '-y, x, -z'
4 'y, -x, -z'
5 'x, -y, -z+1/2'
6 '-x, y, -z+1/2'
7 'x, y, -z'
8 '-x, -y, -z'
9 '-y, -x, z+1/2'
10 'y, x, z+1/2'
11 'y, -x, z'
12 '-y, x, z'
13 '-x, y, z+1/2'
14 'x, -y, z+1/2'
15 '-x, -y, z'
16 'x, y, z'
17 'y+1/2, x+1/2, -z'
18 '-y+1/2, -x+1/2, -z'
19 '-y+1/2, x+1/2, -z+1/2'
20 'y+1/2, -x+1/2, -z+1/2'
21 'x+1/2, -y+1/2, -z'
22 '-x+1/2, y+1/2, -z'
23 'x+1/2, y+1/2, -z+1/2'
24 '-x+1/2, -y+1/2, -z+1/2'
25 '-y+1/2, -x+1/2, z'
26 'y+1/2, x+1/2, z'
27 'y+1/2, -x+1/2, z+1/2'
28 '-y+1/2, x+1/2, z+1/2'
29 '-x+1/2, y+1/2, z'
30 'x+1/2, -y+1/2, z'
31 '-x+1/2, -y+1/2, z+1/2'
32 'x+1/2, y+1/2, z+1/2'
loop_
_atom_type_symbol
_atom_type_oxidation_number
K1+ 1
Cu2+ 2
F1- -1
loop_
_atom_site_label
_atom_site_type_symbol
_atom_site_symmetry_multiplicity
_atom_site_Wyckoff_symbol
_atom_site_fract_x
_atom_site_fract_y
_atom_site_fract_z
_atom_site_B_iso_or_equiv
_atom_site_occupancy
K1 K1+ 4 a 0 0 0.25 1.54(1) 1.
Cu1 Cu2+ 4 d 0 0.5 0 1.11(7) 1.
F1 F1- 4 b 0 0.5 0.25 1.58(9) 1.
F2 F1- 8 h 0.2297(6) 0.7297(6) 0 1.63(8) 1.
#End of TTdata_182851-ICSD